<?xml version="1.0"?>
<VTKFile type="RectilinearGrid" version="0.1">
  <RectilinearGrid WholeExtent="0 49 0 49 0 49">
    <Piece Extent="0 49 0 49 0 49">
      <PointData>
        <DataArray type="Float64" NumberOfComponents="1" Name="Field" format="ascii">
          -1.85544e-07 -1.91108e-07 -1.88465e-07 -1.80371e-07 -1.75036e-07 -1.77127e-07 -1.83601e-07 -1.87719e-07 -1.85745e-07 -1.79464e-07 -1.73383e-07 -1.70712e-07 -1.71808e-07 -1.75175e-07 -1.79022e-07 -1.82061e-07 -1.83617e-07 -1.83554e-07 -1.82172e-07 -1.80038e-07 -1.77753e-07 -1.75764e-07 -1.74277e-07 -1.73311e-07 -1.72824e-07 -1.72798e-07 -1.73243e-07 -1.74141e-07 -1.75412e-07 -1.7691e-07 -1.78452e-07 -1.79794e-07 -1.80562e-07 -1.80242e-07 -1.78393e-07 -1.7509e-07 -1.71275e-07 -1.68594e-07 -1.68613e-07 -1.71798e-07 -1.77e-07 -1.81966e-07 -1.84617e-07 -1.84002e-07 -1.80199e-07 -1.73937e-07 -1.67244e-07 -1.64161e-07 -1.68464e-07 -1.78419e-07 -1.84192e-07 -1.7739e-07 -1.71433e-07 -1.70901e-07 -1.75801e-07 -1.81593e-07 -1.8316e-07 -1.78966e-07 -1.71898e-07 -1.66547e-07 -1.65704e-07 -1.68936e-07 -1.73767e-07 -1.77762e-07 -1.79725e-07 -1.79638e-07 -1.78045e-07 -1.756e-07 -1.72893e-07 -1.704e-07 -1.68428e-07 -1.67075e-07 -1.66267e-07 -1.65848e-07 -1.65681e-07 -1.65704e-07 -1.65935e-07 -1.66429e-07 -1.67252e-07 -1.68482e-07 -1.70205e-07 -1.72465e-07 -1.75124e-07 -1.77693e-07 -1.79304e-07 -1.78975e-07 -1.76146e-07 -1.71189e-07 -1.65538e-07 -1.61258e-07 -1.60254e-07 -1.6345e-07 -1.70069e-07 -1.77122e-07 -1.79954e-07 -1.75058e-07 -1.64326e-07 -1.56209e-07 -1.5945e-07 -1.728e-07 -1.72439e-07 -1.66379e-07 -1.63646e-07 -1.66127e-07 -1.70357e-07 -1.714e-07 -1.67584e-07 -1.61651e-07 -1.57951e-07 -1.58808e-07 -1.63159e-07 -1.67973e-07 -1.70659e-07 -1.70464e-07 -1.68237e-07 -1.65347e-07 -1.62794e-07 -1.60968e-07 -1.59843e-07 -1.59242e-07 -1.58981e-07 -1.58908e-07 -1.58903e-07 -1.58886e-07 -1.5882e-07 -1.58699e-07 -1.58542e-07 -1.58372e-07 -1.58226e-07 -1.5818e-07 -1.58389e-07 -1.59109e-07 -1.60643e-07 -1.63172e-07 -1.66524e-07 -1.70005e-07 -1.72448e-07 -1.72545e-07 -1.69454e-07 -1.63519e-07 -1.56799e-07 -1.52795e-07 -1.54686e-07 -1.6245e-07 -1.71217e-07 -1.73891e-07 -1.67714e-07 -1.58784e-07 -1.57623e-07 -1.67478e-07 -1.54994e-07 -1.58998e-07 -1.6223e-07 -1.62375e-07 -1.58817e-07 -1.53303e-07 -1.49012e-07 -1.48444e-07 -1.51673e-07 -1.56392e-07 -1.59648e-07 -1.59812e-07 -1.57316e-07 -1.53905e-07 -1.51288e-07 -1.50237e-07 -1.50541e-07 -1.51498e-07 -1.52451e-07 -1.53036e-07 -1.53181e-07 -1.52983e-07 -1.52603e-07 -1.52195e-07 -1.51872e-07 -1.51693e-07 -1.51655e-07 -1.51699e-07 -1.5171e-07 -1.51539e-07 -1.51059e-07 -1.50254e-07 -1.49331e-07 -1.48779e-07 -1.49287e-07 -1.5147e-07 -1.55414e-07 -1.60227e-07 -1.63943e-07 -1.64241e-07 -1.60044e-07 -1.53141e-07 -1.48055e-07 -1.49086e-07 -1.56164e-07 -1.63713e-07 -1.65207e-07 -1.60136e-07 -1.55552e-07 -1.58585e-07 -1.41482e-07 -1.54048e-07 -1.59648e-07 -1.55063e-07 -1.45736e-07 -1.39489e-07 -1.40105e-07 -1.45651e-07 -1.51285e-07 -1.53226e-07 -1.50914e-07 -1.46525e-07 -1.42951e-07 -1.41943e-07 -1.43478e-07 -1.46308e-07 -1.48973e-07 -1.5054e-07 -1.50799e-07 -1.50041e-07 -1.48738e-07 -1.47314e-07 -1.46064e-07 -1.45157e-07 -1.44671e-07 -1.44625e-07 -1.44999e-07 -1.45738e-07 -1.46731e-07 -1.47783e-07 -1.48586e-07 -1.4875e-07 -1.4791e-07 -1.45943e-07 -1.43225e-07 -1.40779e-07 -1.40079e-07 -1.42337e-07 -1.47437e-07 -1.53275e-07 -1.5646e-07 -1.5462e-07 -1.48843e-07 -1.43698e-07 -1.43733e-07 -1.48995e-07 -1.54366e-07 -1.54563e-07 -1.50235e-07 -1.47874e-07 -1.37252e-07 -1.49939e-07 -1.51907e-07 -1.43955e-07 -1.3578e-07 -1.349e-07 -1.40622e-07 -1.46781e-07 -1.48211e-07 -1.44533e-07 -1.39201e-07 -1.36097e-07 -1.36882e-07 -1.40598e-07 -1.44974e-07 -1.48018e-07 -1.48885e-07 -1.47836e-07 -1.45693e-07 -1.43282e-07 -1.41146e-07 -1.39515e-07 -1.3841e-07 -1.37759e-07 -1.37482e-07 -1.37523e-07 -1.3787e-07 -1.38552e-07 -1.39628e-07 -1.4114e-07 -1.43038e-07 -1.45075e-07 -1.46733e-07 -1.47254e-07 -1.45903e-07 -1.42464e-07 -1.37781e-07 -1.33868e-07 -1.33096e-07 -1.36556e-07 -1.42656e-07 -1.47518e-07 -1.47683e-07 -1.4326e-07 -1.38363e-07 -1.37512e-07 -1.41015e-07 -1.44445e-07 -1.43631e-07 -1.40029e-07 -1.3862e-07 -1.44522e-07 -1.40455e-07 -1.32842e-07 -1.30528e-07 -1.35092e-07 -1.40853e-07 -1.41913e-07 -1.37649e-07 -1.32114e-07 -1.29694e-07 -1.31721e-07 -1.36329e-07 -1.40547e-07 -1.42381e-07 -1.41567e-07 -1.39073e-07 -1.36164e-07 -1.33729e-07 -1.321e-07 -1.31196e-07 -1.30776e-07 -1.30611e-07 -1.30546e-07 -1.30503e-07 -1.30448e-07 -1.30384e-07 -1.30348e-07 -1.30433e-07 -1.30813e-07 -1.31732e-07 -1.33434e-07 -1.3599e-07 -1.39058e-07 -1.41701e-07 -1.42539e-07 -1.40418e-07 -1.35428e-07 -1.29571e-07 -1.26121e-07 -1.27515e-07 -1.33059e-07 -1.38745e-07 -1.40164e-07 -1.36504e-07 -1.31643e-07 -1.30492e-07 -1.33821e-07 -1.37316e-07 -1.36602e-07 -1.37096e-07 -1.35469e-07 -1.28674e-07 -1.25133e-07 -1.28121e-07 -1.33016e-07 -1.33679e-07 -1.29132e-07 -1.23662e-07 -1.21874e-07 -1.24619e-07 -1.29147e-07 -1.32062e-07 -1.3185e-07 -1.29258e-07 -1.26072e-07 -1.23732e-07 -1.22724e-07 -1.22747e-07 -1.23219e-07 -1.23668e-07 -1.23884e-07 -1.23869e-07 -1.23728e-07 -1.23562e-07 -1.23428e-07 -1.23315e-07 -1.23164e-07 -1.22888e-07 -1.22428e-07 -1.21849e-07 -1.21431e-07 -1.21702e-07 -1.23278e-07 -1.26433e-07 -1.3056e-07 -1.33948e-07 -1.34424e-07 -1.30888e-07 -1.24794e-07 -1.19983e-07 -1.20114e-07 -1.25291e-07 -1.31175e-07 -1.32478e-07 -1.28265e-07 -1.23505e-07 -1.2411e-07 -1.29983e-07 -1.34241e-07 -1.27607e-07 -1.22486e-07 -1.18756e-07 -1.20801e-07 -1.25102e-07 -1.25455e-07 -1.20561e-07 -1.14983e-07 -1.13678e-07 -1.17094e-07 -1.21534e-07 -1.23166e-07 -1.21127e-07 -1.17398e-07 -1.14595e-07 -1.14047e-07 -1.15406e-07 -1.17443e-07 -1.19028e-07 -1.19644e-07 -1.19362e-07 -1.18558e-07 -1.17638e-07 -1.16894e-07 -1.16477e-07 -1.16433e-07 -1.16736e-07 -1.17294e-07 -1.17931e-07 -1.18368e-07 -1.18256e-07 -1.17312e-07 -1.15576e-07 -1.13671e-07 -1.12815e-07 -1.1427e-07 -1.18304e-07 -1.23319e-07 -1.26243e-07 -1.24639e-07 -1.19235e-07 -1.14285e-07 -1.143e-07 -1.1943e-07 -1.24462e-07 -1.23857e-07 -1.18388e-07 -1.15323e-07 -1.2011e-07 -1.28437e-07 -1.12394e-07 -1.08708e-07 -1.1146e-07 -1.17321e-07 -1.18946e-07 -1.14035e-07 -1.07674e-07 -1.06105e-07 -1.10118e-07 -1.15099e-07 -1.16329e-07 -1.1324e-07 -1.08997e-07 -1.07076e-07 -1.08583e-07 -1.12153e-07 -1.15569e-07 -1.17326e-07 -1.17156e-07 -1.15666e-07 -1.13695e-07 -1.11881e-07 -1.10532e-07 -1.09706e-07 -1.09349e-07 -1.094e-07 -1.0984e-07 -1.10687e-07 -1.11955e-07 -1.13555e-07 -1.15184e-07 -1.16253e-07 -1.15996e-07 -1.13882e-07 -1.10241e-07 -1.06663e-07 -1.05484e-07 -1.08162e-07 -1.13532e-07 -1.17835e-07 -1.17508e-07 -1.12854e-07 -1.08583e-07 -1.09389e-07 -1.14399e-07 -1.17351e-07 -1.13926e-07 -1.08216e-07 -1.08926e-07 -1.17809e-07 -9.78117e-08 -9.86164e-08 -1.06736e-07 -1.1241e-07 -1.09631e-07 -1.02504e-07 -9.93343e-08 -1.02982e-07 -1.08748e-07 -1.10546e-07 -1.07212e-07 -1.02636e-07 -1.01192e-07 -1.03933e-07 -1.08595e-07 -1.12145e-07 -1.12998e-07 -1.11448e-07 -1.0877e-07 -1.06175e-07 -1.04286e-07 -1.03177e-07 -1.02636e-07 -1.0241e-07 -1.02324e-07 -1.023e-07 -1.02343e-07 -1.02537e-07 -1.03045e-07 -1.04096e-07 -1.05888e-07 -1.08368e-07 -1.10946e-07 -1.12405e-07 -1.11372e-07 -1.07424e-07 -1.0213e-07 -9.87432e-08 -9.9935e-08 -1.0501e-07 -1.09645e-07 -1.0961e-07 -1.05429e-07 -1.02391e-07 -1.04546e-07 -1.09131e-07 -1.09357e-07 -1.03696e-07 -9.96616e-08 -1.04824e-07 -8.84574e-08 -9.40548e-08 -1.03395e-07 -1.05286e-07 -9.91362e-08 -9.37401e-08 -9.54197e-08 -1.0125e-07 -1.04054e-07 -1.01085e-07 -9.61368e-08 -9.44323e-08 -9.73086e-08 -1.01894e-07 -1.04568e-07 -1.03944e-07 -1.01109e-07 -9.80028e-08 -9.59142e-08 -9.50637e-08 -9.50147e-08 -9.52329e-08 -9.53937e-08 -9.54096e-08 -9.53238e-08 -9.51955e-08 -9.50357e-08 -9.48036e-08 -9.44657e-08 -9.4113e-08 -9.40876e-08 -9.49802e-08 -9.73137e-08 -1.00901e-07 -1.04313e-07 -1.05255e-07 -1.02249e-07 -9.65607e-08 -9.21882e-08 -9.27588e-08 -9.76518e-08 -1.01872e-07 -1.01138e-07 -9.71051e-08 -9.57485e-08 -9.95704e-08 -1.03423e-07 -1.00967e-07 -9.44325e-08 -9.33763e-08 -8.42946e-08 -9.25456e-08 -9.89257e-08 -9.60793e-08 -8.95081e-08 -8.82476e-08 -9.29762e-08 -9.66712e-08 -9.44917e-08 -8.91972e-08 -8.67395e-08 -8.92008e-08 -9.33907e-08 -9.50993e-08 -9.31797e-08 -8.96627e-08 -8.7153e-08 -8.67157e-08 -8.77393e-08 -8.90185e-08 -8.97291e-08 -8.97055e-08 -8.92157e-08 -8.86357e-08 -8.82491e-08 -8.81879e-08 -8.84375e-08 -8.88435e-08 -8.91146e-08 -8.88816e-08 -8.79054e-08 -8.64313e-08 -8.54387e-08 -8.63133e-08 -8.9714e-08 -9.4318e-08 -9.69742e-08 -9.51204e-08 -8.97956e-08 -8.56917e-08 -8.68174e-08 -9.17496e-08 -9.46312e-08 -9.2142e-08 -8.82024e-08 -8.92159e-08 -9.48758e-08 -9.74494e-08 -9.23666e-08 -8.59919e-08 -8.22475e-08 -8.97233e-08 -9.09923e-08 -8.52997e-08 -8.15133e-08 -8.4461e-08 -8.89566e-08 -8.81153e-08 -8.26479e-08 -7.90504e-08 -8.09292e-08 -8.52491e-08 -8.68498e-08 -8.43079e-08 -8.05542e-08 -7.90777e-08 -8.07261e-08 -8.38024e-08 -8.61471e-08 -8.67362e-08 -8.58264e-08 -8.42477e-08 -8.27368e-08 -8.16844e-08 -8.11981e-08 -8.12594e-08 -8.18367e-08 -8.28977e-08 -8.43139e-08 -8.56967e-08 -8.63174e-08 -8.53678e-08 -8.26777e-08 -7.94646e-08 -7.81196e-08 -8.04138e-08 -8.52553e-08 -8.86694e-08 -8.73087e-08 -8.25188e-08 -7.97087e-08 -8.22558e-08 -8.67999e-08 -8.69805e-08 -8.21799e-08 -7.93863e-08 -8.38871e-08 -9.076e-08 -9.0469e-08 -8.25228e-08 -7.94929e-08 -8.32053e-08 -7.96083e-08 -7.41699e-08 -7.49585e-08 -8.03562e-08 -8.20446e-08 -7.72262e-08 -7.20213e-08 -7.26033e-08 -7.74192e-08 -8.01602e-08 -7.79143e-08 -7.38712e-08 -7.27643e-08 -7.5784e-08 -8.02931e-08 -8.30857e-08 -8.29917e-08 -8.09001e-08 -7.83276e-08 -7.6283e-08 -7.50399e-08 -7.44408e-08 -7.42349e-08 -7.42556e-08 -7.44797e-08 -7.50411e-08 -7.61959e-08 -7.81403e-08 -8.0631e-08 -8.26303e-08 -8.25429e-08 -7.94467e-08 -7.46196e-08 -7.14854e-08 -7.28567e-08 -7.75579e-08 -8.07284e-08 -7.89664e-08 -7.4856e-08 -7.42482e-08 -7.8346e-08 -8.11785e-08 -7.75893e-08 -7.16726e-08 -7.24143e-08 -8.06113e-08 -8.59305e-08 -8.06412e-08 -7.5164e-08 -7.39694e-08 -6.7343e-08 -6.45548e-08 -6.95705e-08 -7.49411e-08 -7.29851e-08 -6.66109e-08 -6.44519e-08 -6.87775e-08 -7.33558e-08 -7.25541e-08 -6.82055e-08 -6.6218e-08 -6.91308e-08 -7.40444e-08 -7.67107e-08 -7.57053e-08 -7.26273e-08 -6.97082e-08 -6.80128e-08 -6.73883e-08 -6.72667e-08 -6.72487e-08 -6.71997e-08 -6.71048e-08 -6.69438e-08 -6.67058e-08 -6.65455e-08 -6.69526e-08 -6.86241e-08 -7.17725e-08 -7.52206e-08 -7.64724e-08 -7.36834e-08 -6.82384e-08 -6.4614e-08 -6.61318e-08 -7.07088e-08 -7.26764e-08 -6.99078e-08 -6.70988e-08 -6.93546e-08 -7.4014e-08 -7.34443e-08 -6.67106e-08 -6.29318e-08 -6.89135e-08 -7.78559e-08 -7.75209e-08 -6.96876e-08 -6.44164e-08 -5.70118e-08 -5.76533e-08 -6.4978e-08 -6.82989e-08 -6.34752e-08 -5.81057e-08 -5.96531e-08 -6.52212e-08 -6.68805e-08 -6.29655e-08 -5.93319e-08 -6.07594e-08 -6.53028e-08 -6.77999e-08 -6.61448e-08 -6.25513e-08 -6.00929e-08 -5.97246e-08 -6.04324e-08 -6.09617e-08 -6.08696e-08 -6.04162e-08 -6.00362e-08 -5.99869e-08 -6.02341e-08 -6.04569e-08 -6.01932e-08 -5.92527e-08 -5.82733e-08 -5.87366e-08 -6.17267e-08 -6.607e-08 -6.82616e-08 -6.56926e-08 -6.0368e-08 -5.77707e-08 -6.05231e-08 -6.45583e-08 -6.42381e-08 -6.05659e-08 -6.01971e-08 -6.51114e-08 -6.82248e-08 -6.35337e-08 -5.66859e-08 -5.82232e-08 -6.73856e-08 -7.1569e-08 -6.34243e-08 -5.58497e-08 -4.93766e-08 -5.28329e-08 -6.02041e-08 -6.06225e-08 -5.46005e-08 -5.18393e-08 -5.59726e-08 -6.00948e-08 -5.80499e-08 -5.31014e-08 -5.21724e-08 -5.59455e-08 -5.89103e-08 -5.73745e-08 -5.35663e-08 -5.17819e-08 -5.32619e-08 -5.58691e-08 -5.71982e-08 -5.66771e-08 -5.5186e-08 -5.37794e-08 -5.30341e-08 -5.31166e-08 -5.39985e-08 -5.54437e-08 -5.67959e-08 -5.69761e-08 -5.52189e-08 -5.23467e-08 -5.09986e-08 -5.33359e-08 -5.78701e-08 -5.9906e-08 -5.68752e-08 -5.23868e-08 -5.22457e-08 -5.63632e-08 -5.83451e-08 -5.49419e-08 -5.17307e-08 -5.4942e-08 -6.08086e-08 -6.01334e-08 -5.29445e-08 -4.99943e-08 -5.65164e-08 -6.30731e-08 -5.63366e-08 -4.80326e-08 -4.32956e-08 -4.8315e-08 -5.40674e-08 -5.18491e-08 -4.63358e-08 -4.66123e-08 -5.15941e-08 -5.27814e-08 -4.80601e-08 -4.43569e-08 -4.65381e-08 -5.06354e-08 -5.05486e-08 -4.67405e-08 -4.4725e-08 -4.73266e-08 -5.18489e-08 -5.42253e-08 -5.33034e-08 -5.07098e-08 -4.83323e-08 -4.69102e-08 -4.63293e-08 -4.63516e-08 -4.6984e-08 -4.84638e-08 -5.08702e-08 -5.34084e-08 -5.41717e-08 -5.15944e-08 -4.69395e-08 -4.43655e-08 -4.66109e-08 -5.08407e-08 -5.14336e-08 -4.76821e-08 -4.54017e-08 -4.84544e-08 -5.21729e-08 -5.00377e-08 -4.45852e-08 -4.46111e-08 -5.12109e-08 -5.4808e-08 -4.97597e-08 -4.39628e-08 -4.67312e-08 -5.35031e-08 -4.85385e-08 -4.04473e-08 -3.76034e-08 -4.30228e-08 -4.63491e-08 -4.22715e-08 -3.83639e-08 -4.12526e-08 -4.57074e-08 -4.39217e-08 -3.83055e-08 -3.71606e-08 -4.15192e-08 -4.42698e-08 -4.15741e-08 -3.81842e-08 -3.98125e-08 -4.52647e-08 -4.89267e-08 -4.80402e-08 -4.4625e-08 -4.17065e-08 -4.02702e-08 -3.97202e-08 -3.9445e-08 -3.92805e-08 -3.92237e-08 -3.94642e-08 -4.06949e-08 -4.36038e-08 -4.72292e-08 -4.84412e-08 -4.5001e-08 -3.94722e-08 -3.75169e-08 -4.07006e-08 -4.37513e-08 -4.19844e-08 -3.87241e-08 -4.02696e-08 -4.50625e-08 -4.50222e-08 -3.87456e-08 -3.53338e-08 -4.06626e-08 -4.72708e-08 -4.54733e-08 -3.88485e-08 -3.83942e-08 -4.4289e-08 -4.03982e-08 -3.30259e-08 -3.20966e-08 -3.72761e-08 -3.80513e-08 -3.28051e-08 -3.07829e-08 -3.54852e-08 -3.87831e-08 -3.48878e-08 -2.98468e-08 -3.12906e-08 -3.63126e-08 -3.69021e-08 -3.2839e-08 -3.13649e-08 -3.56306e-08 -4.05077e-08 -4.05911e-08 -3.69405e-08 -3.39403e-08 -3.32429e-08 -3.33005e-08 -3.27711e-08 -3.20363e-08 -3.19348e-08 -3.23599e-08 -3.23646e-08 -3.16947e-08 -3.20076e-08 -3.51377e-08 -3.94279e-08 -4.00923e-08 -3.55041e-08 -3.08206e-08 -3.15652e-08 -3.53885e-08 -3.55728e-08 -3.20471e-08 -3.18301e-08 -3.68293e-08 -3.91885e-08 -3.37533e-08 -2.79009e-08 -3.08766e-08 -3.86172e-08 -3.96351e-08 -3.345e-08 -3.102e-08 -3.60682e-08 -3.19137e-08 -2.56009e-08 -2.67575e-08 -3.16678e-08 -3.02163e-08 -2.41956e-08 -2.37366e-08 -2.94794e-08 -3.1634e-08 -2.66975e-08 -2.29308e-08 -2.61648e-08 -3.05561e-08 -2.90014e-08 -2.47232e-08 -2.52712e-08 -3.01765e-08 -3.23486e-08 -2.93653e-08 -2.61606e-08 -2.66911e-08 -2.88754e-08 -2.90069e-08 -2.69026e-08 -2.50359e-08 -2.52401e-08 -2.73253e-08 -2.91991e-08 -2.8428e-08 -2.55485e-08 -2.4733e-08 -2.8295e-08 -3.2026e-08 -3.0383e-08 -2.53243e-08 -2.40744e-08 -2.77647e-08 -2.94617e-08 -2.5968e-08 -2.37854e-08 -2.79766e-08 -3.23202e-08 -2.89029e-08 -2.21956e-08 -2.288e-08 -3.021e-08 -3.27227e-08 -2.71824e-08 -2.38684e-08 -2.86946e-08 -2.26012e-08 -1.75367e-08 -2.09627e-08 -2.59743e-08 -2.29113e-08 -1.6334e-08 -1.68848e-08 -2.30997e-08 -2.44413e-08 -1.9284e-08 -1.68401e-08 -2.09424e-08 -2.40906e-08 -2.09359e-08 -1.71611e-08 -1.92144e-08 -2.34714e-08 -2.29394e-08 -1.90707e-08 -1.89295e-08 -2.36575e-08 -2.72989e-08 -2.60654e-08 -2.24197e-08 -2.0078e-08 -2.0264e-08 -2.2911e-08 -2.66726e-08 -2.77663e-08 -2.37947e-08 -1.87582e-08 -1.88389e-08 -2.29295e-08 -2.37505e-08 -1.95799e-08 -1.73395e-08 -2.08058e-08 -2.37098e-08 -2.04372e-08 -1.63519e-08 -1.8983e-08 -2.44587e-08 -2.3384e-08 -1.71868e-08 -1.63911e-08 -2.26128e-08 -2.53254e-08 -1.99987e-08 -1.64048e-08 -2.16679e-08 -1.25286e-08 -8.57023e-09 -1.40884e-08 -1.96059e-08 -1.56959e-08 -8.7779e-09 -9.81286e-09 -1.61075e-08 -1.69565e-08 -1.19892e-08 -1.05963e-08 -1.49996e-08 -1.69875e-08 -1.28923e-08 -9.80703e-09 -1.27667e-08 -1.61062e-08 -1.38859e-08 -1.06201e-08 -1.37366e-08 -2.11197e-08 -2.45429e-08 -2.19875e-08 -1.85318e-08 -1.71913e-08 -1.674e-08 -1.74322e-08 -2.08298e-08 -2.38622e-08 -2.10711e-08 -1.40656e-08 -1.09186e-08 -1.39135e-08 -1.59491e-08 -1.27522e-08 -1.02241e-08 -1.36655e-08 -1.75593e-08 -1.46547e-08 -9.12046e-09 -1.00979e-08 -1.59337e-08 -1.67769e-08 -1.17085e-08 -1.03549e-08 -1.55567e-08 -1.77803e-08 -1.221e-08 -8.54499e-09 -1.45795e-08 -3.08861e-09 3.57895e-10 -6.45059e-09 -1.25938e-08 -8.58305e-09 -1.60169e-09 -2.71856e-09 -8.79106e-09 -9.28862e-09 -4.53694e-09 -3.82861e-09 -8.40905e-09 -9.77831e-09 -5.24749e-09 -2.55449e-09 -5.87864e-09 -8.63961e-09 -5.72855e-09 -3.17996e-09 -8.09398e-09 -1.63545e-08 -1.90543e-08 -1.59698e-08 -1.36611e-08 -1.37611e-08 -1.26431e-08 -1.08056e-08 -1.25978e-08 -1.64359e-08 -1.51295e-08 -8.00949e-09 -3.41356e-09 -5.56071e-09 -7.9897e-09 -5.31188e-09 -2.73459e-09 -6.22684e-09 -1.07254e-08 -8.14227e-09 -1.87086e-09 -1.80062e-09 -7.61296e-09 -9.4923e-09 -5.31631e-09 -3.96178e-09 -8.63702e-09 -1.0347e-08 -4.38922e-09 -6.66272e-10 -7.34731e-09 4.01507e-09 7.8533e-09 1.0861e-09 -5.41505e-09 -1.88781e-09 4.85492e-09 3.91072e-09 -1.74171e-09 -1.90893e-09 2.86233e-09 3.32884e-09 -1.52947e-09 -3.02253e-09 1.56977e-09 4.41325e-09 1.20759e-09 -1.5354e-09 1.30315e-09 3.76379e-09 -1.16418e-09 -9.33346e-09 -1.19027e-08 -8.7646e-09 -6.53894e-09 -6.7962e-09 -5.77236e-09 -3.88015e-09 -5.51571e-09 -9.23006e-09 -7.92965e-09 -9.23655e-10 3.55227e-09 1.36038e-09 -1.03186e-09 1.72247e-09 4.37407e-09 9.23869e-10 -3.58635e-09 -1.06067e-09 5.16333e-09 5.25724e-09 -4.74083e-10 -2.31388e-09 1.78265e-09 2.99551e-09 -1.72453e-09 -3.29224e-09 2.89081e-09 6.70075e-09 -1.48306e-10 8.63081e-09 1.36462e-08 8.31521e-09 1.94578e-09 4.6231e-09 1.08781e-08 1.02226e-08 4.98033e-09 5.00753e-09 1.00848e-08 1.09096e-08 5.81049e-09 3.48108e-09 7.6877e-09 1.11226e-08 8.46615e-09 5.20529e-09 7.27454e-09 1.03152e-08 7.11611e-09 -1.02965e-10 -3.23747e-09 -5.29145e-10 2.7896e-09 3.82097e-09 4.08289e-09 3.50598e-09 4.21905e-10 -2.39074e-09 3.34231e-10 7.06535e-09 9.96891e-09 6.92437e-09 5.01226e-09 8.3924e-09 1.10747e-08 7.70408e-09 3.75293e-09 6.49223e-09 1.18947e-08 1.09762e-08 5.35201e-09 4.61348e-09 9.47963e-09 1.04773e-08 5.17825e-09 3.33634e-09 9.48219e-09 1.33464e-08 6.85723e-09 1.24234e-08 1.88248e-08 1.58047e-08 9.95882e-09 1.15978e-08 1.72662e-08 1.69896e-08 1.19286e-08 1.16679e-08 1.70898e-08 1.89998e-08 1.41425e-08 1.05582e-08 1.3739e-08 1.78231e-08 1.61009e-08 1.20006e-08 1.24444e-08 1.60722e-08 1.60327e-08 1.13503e-08 7.9371e-09 9.36093e-09 1.29843e-08 1.51435e-08 1.48343e-08 1.22667e-08 8.69381e-09 7.67029e-09 1.14842e-08 1.62654e-08 1.60552e-08 1.2046e-08 1.14159e-08 1.57517e-08 1.80832e-08 1.46253e-08 1.16086e-08 1.46575e-08 1.85684e-08 1.60046e-08 1.07904e-08 1.19968e-08 1.7954e-08 1.8339e-08 1.20381e-08 9.81351e-09 1.58119e-08 1.95788e-08 1.37151e-08 1.7096e-08 2.44121e-08 2.37614e-08 1.8493e-08 1.89832e-08 2.41798e-08 2.45783e-08 1.95071e-08 1.81422e-08 2.34055e-08 2.69647e-08 2.33236e-08 1.86448e-08 2.01161e-08 2.44585e-08 2.40566e-08 1.93026e-08 1.71816e-08 2.00634e-08 2.30921e-08 2.24569e-08 2.03071e-08 2.02842e-08 2.24649e-08 2.43412e-08 2.41237e-08 2.20369e-08 2.01407e-08 2.08196e-08 2.35673e-08 2.43275e-08 2.08665e-08 1.73284e-08 1.91064e-08 2.41738e-08 2.53702e-08 2.16291e-08 1.98439e-08 2.31673e-08 2.52019e-08 2.10572e-08 1.69317e-08 2.04664e-08 2.69871e-08 2.59891e-08 1.86274e-08 1.65163e-08 2.25405e-08 2.58979e-08 2.05391e-08 2.29068e-08 3.03839e-08 3.15804e-08 2.66345e-08 2.58106e-08 3.07431e-08 3.24619e-08 2.76704e-08 2.44468e-08 2.8441e-08 3.3583e-08 3.22786e-08 2.73739e-08 2.67574e-08 3.06477e-08 3.19594e-08 2.76786e-08 2.29043e-08 2.2906e-08 2.65407e-08 2.94533e-08 3.00694e-08 2.99857e-08 3.05428e-08 3.13224e-08 3.14396e-08 3.09764e-08 3.08996e-08 3.15225e-08 3.1253e-08 2.82757e-08 2.41809e-08 2.36232e-08 2.81425e-08 3.26418e-08 3.17628e-08 2.79442e-08 2.78185e-08 3.13251e-08 3.1461e-08 2.64567e-08 2.42118e-08 2.97396e-08 3.55294e-08 3.24125e-08 2.46478e-08 2.37688e-08 3.0082e-08 3.24524e-08 2.71827e-08 2.92456e-08 3.64018e-08 3.89252e-08 3.40394e-08 3.1572e-08 3.61444e-08 3.99068e-08 3.64153e-08 3.12765e-08 3.26568e-08 3.83562e-08 4.00005e-08 3.62022e-08 3.36908e-08 3.62098e-08 3.92388e-08 3.73653e-08 3.18996e-08 2.83733e-08 2.94065e-08 3.28952e-08 3.5801e-08 3.71737e-08 3.76584e-08 3.78923e-08 3.80335e-08 3.80825e-08 3.78785e-08 3.67624e-08 3.40314e-08 3.05701e-08 2.94079e-08 3.27244e-08 3.79949e-08 3.97037e-08 3.64531e-08 3.3554e-08 3.55457e-08 3.89124e-08 3.73132e-08 3.24346e-08 3.24841e-08 3.88574e-08 4.23606e-08 3.70479e-08 3.03518e-08 3.19592e-08 3.83836e-08 3.88181e-08 3.31788e-08 3.59757e-08 4.27292e-08 4.64858e-08 4.18024e-08 3.72972e-08 4.06873e-08 4.65765e-08 4.57936e-08 3.98342e-08 3.77965e-08 4.22592e-08 4.63619e-08 4.48736e-08 4.12659e-08 4.1397e-08 4.49302e-08 4.66349e-08 4.38732e-08 3.93662e-08 3.71181e-08 3.81987e-08 4.09039e-08 4.33018e-08 4.46653e-08 4.51627e-08 4.50898e-08 4.448e-08 4.31058e-08 4.08494e-08 3.84222e-08 3.76519e-08 4.00856e-08 4.45095e-08 4.68561e-08 4.44924e-08 4.03314e-08 3.99729e-08 4.39761e-08 4.63511e-08 4.31953e-08 3.93104e-08 4.13945e-08 4.6974e-08 4.71541e-08 4.0645e-08 3.68602e-08 4.14777e-08 4.69259e-08 4.43054e-08 3.82166e-08 4.34002e-08 4.95581e-08 5.47524e-08 5.11187e-08 4.46287e-08 4.54118e-08 5.22204e-08 5.50275e-08 5.03098e-08 4.53819e-08 4.68794e-08 5.17985e-08 5.30955e-08 4.97387e-08 4.69792e-08 4.84956e-08 5.21846e-08 5.3848e-08 5.2282e-08 4.96477e-08 4.83669e-08 4.8984e-08 5.05523e-08 5.19709e-08 5.26752e-08 5.2551e-08 5.16695e-08 5.02615e-08 4.893e-08 4.87012e-08 5.03447e-08 5.3101e-08 5.43888e-08 5.2053e-08 4.75645e-08 4.5622e-08 4.87917e-08 5.33969e-08 5.35294e-08 4.92541e-08 4.70806e-08 5.04226e-08 5.37649e-08 5.07667e-08 4.49715e-08 4.5406e-08 5.2127e-08 5.47799e-08 4.85504e-08 4.28079e-08 5.12814e-08 5.58898e-08 6.2399e-08 6.12676e-08 5.40215e-08 5.11503e-08 5.65324e-08 6.2347e-08 6.09523e-08 5.51966e-08 5.31672e-08 5.6775e-08 6.02852e-08 5.88645e-08 5.43706e-08 5.19518e-08 5.37222e-08 5.74158e-08 5.98824e-08 6.01617e-08 5.93456e-08 5.8764e-08 5.88655e-08 5.93446e-08 5.97293e-08 5.97586e-08 5.9475e-08 5.91965e-08 5.93809e-08 6.02483e-08 6.12303e-08 6.08919e-08 5.81015e-08 5.39096e-08 5.17405e-08 5.42443e-08 5.95141e-08 6.20943e-08 5.92991e-08 5.51497e-08 5.53373e-08 5.89593e-08 5.93974e-08 5.45994e-08 5.15118e-08 5.60373e-08 6.25896e-08 6.08929e-08 5.19783e-08 4.83625e-08 5.90705e-08 6.04571e-08 6.71571e-08 6.98022e-08 6.4357e-08 5.84298e-08 6.00726e-08 6.66299e-08 6.93403e-08 6.55531e-08 6.12141e-08 6.19326e-08 6.60034e-08 6.76475e-08 6.44396e-08 5.9398e-08 5.68279e-08 5.80701e-08 6.13489e-08 6.43103e-08 6.59069e-08 6.63973e-08 6.64353e-08 6.64347e-08 6.64962e-08 6.65957e-08 6.67321e-08 6.6922e-08 6.70512e-08 6.66993e-08 6.52189e-08 6.2354e-08 5.91333e-08 5.7903e-08 6.04997e-08 6.56933e-08 6.91795e-08 6.76712e-08 6.31541e-08 6.1202e-08 6.39334e-08 6.66933e-08 6.44086e-08 5.9759e-08 6.03797e-08 6.71591e-08 7.09053e-08 6.48258e-08 5.5854e-08 5.63074e-08 6.73586e-08 6.41816e-08 6.88009e-08 7.49973e-08 7.40853e-08 6.77134e-08 6.4873e-08 6.91108e-08 7.45508e-08 7.46969e-08 7.06059e-08 6.82827e-08 7.05815e-08 7.43817e-08 7.50844e-08 7.16927e-08 6.70242e-08 6.43295e-08 6.46563e-08 6.69381e-08 6.95656e-08 7.15595e-08 7.27312e-08 7.32964e-08 7.35106e-08 7.35128e-08 7.33036e-08 7.27565e-08 7.1656e-08 6.98472e-08 6.75584e-08 6.57249e-08 6.58049e-08 6.86727e-08 7.31672e-08 7.6068e-08 7.46797e-08 7.01233e-08 6.71182e-08 6.89745e-08 7.30949e-08 7.36413e-08 6.94504e-08 6.65999e-08 7.03537e-08 7.65543e-08 7.5954e-08 6.75526e-08 6.18178e-08 6.68671e-08 7.7845e-08 7.04826e-08 7.04281e-08 7.75897e-08 8.20924e-08 7.86932e-08 7.30089e-08 7.27608e-08 7.78031e-08 8.1641e-08 8.03296e-08 7.65843e-08 7.53973e-08 7.81126e-08 8.17731e-08 8.2963e-08 8.10115e-08 7.7785e-08 7.54858e-08 7.50486e-08 7.60956e-08 7.77374e-08 7.92519e-08 8.02907e-08 8.07725e-08 8.07163e-08 8.01478e-08 7.91047e-08 7.77304e-08 7.6412e-08 7.58328e-08 7.6726e-08 7.92248e-08 8.21783e-08 8.33412e-08 8.10481e-08 7.63581e-08 7.31164e-08 7.45792e-08 7.94055e-08 8.22109e-08 7.96018e-08 7.4959e-08 7.4788e-08 7.9848e-08 8.30302e-08 7.86528e-08 7.13673e-08 7.09652e-08 7.85873e-08 9.06505e-08 8.17636e-08 7.58739e-08 7.99634e-08 8.76964e-08 8.93729e-08 8.42527e-08 7.97992e-08 8.13393e-08 8.63098e-08 8.87054e-08 8.63566e-08 8.24197e-08 8.10443e-08 8.32383e-08 8.68396e-08 8.92382e-08 8.94907e-08 8.83447e-08 8.70538e-08 8.63996e-08 8.64793e-08 8.69863e-08 8.75452e-08 8.78903e-08 8.79061e-08 8.76175e-08 8.71847e-08 8.68979e-08 8.71106e-08 8.80362e-08 8.94204e-08 9.03239e-08 8.94396e-08 8.61545e-08 8.17354e-08 7.92037e-08 8.10443e-08 8.62775e-08 9.03287e-08 8.92072e-08 8.42428e-08 8.12649e-08 8.37439e-08 8.79062e-08 8.72013e-08 8.15316e-08 7.84255e-08 8.28168e-08 8.90219e-08 1.02171e-07 9.57483e-08 8.59909e-08 8.42652e-08 9.09892e-08 9.70081e-08 9.57292e-08 9.00275e-08 8.71488e-08 8.98762e-08 9.44249e-08 9.56651e-08 9.24536e-08 8.78179e-08 8.53569e-08 8.62757e-08 8.93047e-08 9.24447e-08 9.44686e-08 9.52451e-08 9.52533e-08 9.50158e-08 9.4828e-08 9.47621e-08 9.47812e-08 9.48443e-08 9.49579e-08 9.51716e-08 9.55162e-08 9.58918e-08 9.59547e-08 9.51341e-08 9.29392e-08 8.95598e-08 8.63551e-08 8.54933e-08 8.83804e-08 9.38257e-08 9.80201e-08 9.74549e-08 9.26618e-08 8.84422e-08 8.90293e-08 9.29512e-08 9.44033e-08 9.07616e-08 8.68435e-08 8.88767e-08 9.49751e-08 9.60641e-08 1.07425e-07 1.06628e-07 9.80014e-08 9.15531e-08 9.3726e-08 1.0071e-07 1.04224e-07 1.01225e-07 9.61462e-08 9.47929e-08 9.81367e-08 1.02287e-07 1.03091e-07 9.98166e-08 9.49365e-08 9.14774e-08 9.08602e-08 9.26212e-08 9.54064e-08 9.80228e-08 9.9893e-08 1.00975e-07 1.01486e-07 1.01676e-07 1.01725e-07 1.01727e-07 1.0169e-07 1.0154e-07 1.01113e-07 1.00175e-07 9.85256e-08 9.62158e-08 9.38179e-08 9.24907e-08 9.35159e-08 9.72633e-08 1.02233e-07 1.0536e-07 1.04148e-07 9.92765e-08 9.48431e-08 9.48503e-08 9.87946e-08 1.01639e-07 9.95313e-08 9.51344e-08 9.49668e-08 1.00464e-07 1.04332e-07 9.92392e-08 1.05681e-07 1.10591e-07 1.08234e-07 1.0173e-07 9.88967e-08 1.02743e-07 1.08667e-07 1.10507e-07 1.07251e-07 1.03156e-07 1.02585e-07 1.05882e-07 1.09883e-07 1.11323e-07 1.09372e-07 1.05577e-07 1.02168e-07 1.00546e-07 1.00862e-07 1.02449e-07 1.04465e-07 1.06296e-07 1.07653e-07 1.08484e-07 1.08848e-07 1.08809e-07 1.08397e-07 1.07599e-07 1.06405e-07 1.04899e-07 1.03371e-07 1.02385e-07 1.02665e-07 1.0469e-07 1.08103e-07 1.11364e-07 1.1228e-07 1.09554e-07 1.04393e-07 1.00403e-07 1.00887e-07 1.05408e-07 1.09392e-07 1.08439e-07 1.03587e-07 1.00974e-07 1.04645e-07 1.10365e-07 1.09511e-07 1.0048e-07 1.03033e-07 1.09735e-07 1.14807e-07 1.1313e-07 1.08207e-07 1.06769e-07 1.1071e-07 1.15808e-07 1.17157e-07 1.14187e-07 1.10386e-07 1.09347e-07 1.11741e-07 1.15525e-07 1.18171e-07 1.18512e-07 1.17017e-07 1.14946e-07 1.13388e-07 1.12809e-07 1.1311e-07 1.13915e-07 1.14827e-07 1.15562e-07 1.15965e-07 1.15987e-07 1.15656e-07 1.15071e-07 1.14415e-07 1.13972e-07 1.14085e-07 1.15015e-07 1.16697e-07 1.18487e-07 1.19185e-07 1.17591e-07 1.13526e-07 1.08636e-07 1.05934e-07 1.07707e-07 1.1308e-07 1.17807e-07 1.1756e-07 1.12419e-07 1.07673e-07 1.08704e-07 1.1447e-07 1.17511e-07 1.12377e-07 1.03569e-07 1.07687e-07 1.0996e-07 1.18008e-07 1.22611e-07 1.20034e-07 1.1494e-07 1.1376e-07 1.17714e-07 1.22644e-07 1.24042e-07 1.21155e-07 1.16768e-07 1.14186e-07 1.14755e-07 1.17592e-07 1.20875e-07 1.23214e-07 1.24188e-07 1.24128e-07 1.2362e-07 1.23121e-07 1.22841e-07 1.22783e-07 1.22853e-07 1.22949e-07 1.23015e-07 1.23058e-07 1.23146e-07 1.23376e-07 1.23816e-07 1.2441e-07 1.24877e-07 1.2468e-07 1.23191e-07 1.20124e-07 1.16078e-07 1.12758e-07 1.12325e-07 1.15857e-07 1.21873e-07 1.26535e-07 1.26233e-07 1.20958e-07 1.15127e-07 1.14042e-07 1.18542e-07 1.23478e-07 1.22761e-07 1.16433e-07 1.11556e-07 1.21799e-07 1.15363e-07 1.19612e-07 1.27776e-07 1.30666e-07 1.26578e-07 1.21184e-07 1.20298e-07 1.24403e-07 1.29409e-07 1.31106e-07 1.28459e-07 1.23546e-07 1.19354e-07 1.17736e-07 1.18792e-07 1.21464e-07 1.24475e-07 1.26957e-07 1.28599e-07 1.29482e-07 1.29849e-07 1.29941e-07 1.29929e-07 1.29909e-07 1.29923e-07 1.29974e-07 1.30023e-07 1.29979e-07 1.29672e-07 1.28868e-07 1.27329e-07 1.24974e-07 1.22114e-07 1.1963e-07 1.18842e-07 1.20884e-07 1.257e-07 1.31373e-07 1.34705e-07 1.33285e-07 1.27757e-07 1.22067e-07 1.20605e-07 1.24234e-07 1.29127e-07 1.30339e-07 1.26977e-07 1.23248e-07 1.2358e-07 1.38507e-07 1.25261e-07 1.22586e-07 1.29869e-07 1.37641e-07 1.38598e-07 1.33491e-07 1.28256e-07 1.27618e-07 1.31575e-07 1.36584e-07 1.39e-07 1.37522e-07 1.33362e-07 1.28838e-07 1.25847e-07 1.2511e-07 1.26291e-07 1.28549e-07 1.31054e-07 1.33259e-07 1.34928e-07 1.3604e-07 1.3668e-07 1.36952e-07 1.36931e-07 1.36639e-07 1.36042e-07 1.35072e-07 1.33677e-07 1.31906e-07 1.30004e-07 1.28471e-07 1.28021e-07 1.29337e-07 1.32609e-07 1.37034e-07 1.40713e-07 1.41399e-07 1.38042e-07 1.32146e-07 1.27418e-07 1.27205e-07 1.31428e-07 1.3613e-07 1.36934e-07 1.33546e-07 1.3029e-07 1.31212e-07 1.34803e-07 1.48119e-07 1.36119e-07 1.30007e-07 1.33379e-07 1.41407e-07 1.46826e-07 1.46163e-07 1.41309e-07 1.36747e-07 1.3578e-07 1.38621e-07 1.43031e-07 1.46302e-07 1.46936e-07 1.45132e-07 1.42176e-07 1.39482e-07 1.37927e-07 1.37696e-07 1.38496e-07 1.39853e-07 1.4133e-07 1.42616e-07 1.43536e-07 1.44021e-07 1.44066e-07 1.43703e-07 1.42991e-07 1.42036e-07 1.41028e-07 1.40264e-07 1.40122e-07 1.40937e-07 1.42795e-07 1.45305e-07 1.47477e-07 1.47942e-07 1.45616e-07 1.40669e-07 1.3512e-07 1.32164e-07 1.34009e-07 1.39575e-07 1.44479e-07 1.4438e-07 1.39289e-07 1.34203e-07 1.34238e-07 1.38685e-07 1.41079e-07 1.47636e-07 1.44941e-07 1.42045e-07 1.4146e-07 1.4417e-07 1.48769e-07 1.5236e-07 1.52645e-07 1.49607e-07 1.4543e-07 1.42815e-07 1.43161e-07 1.4594e-07 1.49454e-07 1.52097e-07 1.5316e-07 1.52859e-07 1.51869e-07 1.50843e-07 1.50166e-07 1.4994e-07 1.50081e-07 1.5042e-07 1.50784e-07 1.51045e-07 1.51142e-07 1.51088e-07 1.50965e-07 1.50904e-07 1.51066e-07 1.51574e-07 1.52416e-07 1.53344e-07 1.53831e-07 1.53186e-07 1.5085e-07 1.46833e-07 1.42103e-07 1.38594e-07 1.3848e-07 1.42656e-07 1.49292e-07 1.54039e-07 1.5288e-07 1.46031e-07 1.38941e-07 1.37817e-07 1.42931e-07 1.4725e-07 1.43856e-07 1.43842e-07 1.50456e-07 1.53855e-07 1.52084e-07 1.48376e-07 1.47412e-07 1.50784e-07 1.5593e-07 1.58835e-07 1.57457e-07 1.52945e-07 1.48231e-07 1.45757e-07 1.46188e-07 1.4866e-07 1.51797e-07 1.54562e-07 1.56509e-07 1.57636e-07 1.58139e-07 1.58256e-07 1.58195e-07 1.58101e-07 1.58045e-07 1.58046e-07 1.5809e-07 1.58166e-07 1.58273e-07 1.58409e-07 1.58524e-07 1.58463e-07 1.57933e-07 1.56579e-07 1.54168e-07 1.50859e-07 1.4737e-07 1.44917e-07 1.44835e-07 1.47935e-07 1.5379e-07 1.6027e-07 1.63924e-07 