<?xml version="1.0"?>
<VTKFile type="UnstructuredGrid" version="0.1">
  <UnstructuredGrid>
    <Piece NumberOfPoints="100" NumberOfCells="0">
      <PointData>
        <DataArray type="Float64" NumberOfComponents="1" Name="Phase" format="ascii">
          16.5103 10.841 -7.28017 -12.8145 16.5097 4.56182 -7.28438 -12.8106 16.5131 4.57253 -7.27357 -6.52186 10.2465 4.58673 -7.26973 -6.51442 3.96821 -1.68738 -0.969361 -0.212309 3.98006 -1.65857 -0.960605 -0.20763 4.0528 1.56023 -0.943665 -3.41171 0.866222 1.4581 -4.06734 -3.34775 0.830523 1.43983 -4.10812 -3.37149 7.09547 1.43293 -4.1274 -9.65846 13.3684 7.70922 -4.12982 -9.66854 13.3657 7.70175 -10.4221 -9.67875 19.6497 7.69689 -10.424 -9.67766 19.6502 7.69982 -10.4228 -9.67558 13.3696 7.71034 -10.4194 -9.66362 13.3802 7.71456 -4.12635 -3.37107 7.10742 1.45028 -4.12277 -3.3613 7.10867 1.45863 -4.10186 -3.35399 0.860304 1.56265 -4.05223 -3.20799 -2.39939 -1.68326 -0.9893 -6.5006 3.96784 -1.68988 -0.977309 -6.49502 3.96659 4.57772 -7.26185 -6.51086 10.2362 4.57042 -7.26774 -6.52149 10.2308 4.5609 -7.27488 -12.8147 16.5083 10.845 -7.28289 -12.823 
        </DataArray>
        <DataArray type="Float64" NumberOfComponents="3" Name="Director" format="ascii">
          -0.953717 -0 0.300706 -0.916493 -0.116593 0.382683 -0.878817 -0 0.477159 -0.812603 -0.103376 0.573576 -0.923754 -0.23718 0.300706 -0.858704 -0.340852 0.382683 -0.851207 -0.218553 0.477159 -0.761365 -0.302215 0.573576 -0.835749 -0.459457 0.300706 -0.74696 -0.543695 0.382683 -0.770113 -0.423373 0.477159 -0.662287 -0.482064 0.573576 -0.69523 -0.652864 0.300706 -0.588282 -0.712375 0.382683 -0.64063 -0.601592 0.477159 -0.521596 -0.631623 0.573576 -0.511027 -0.80525 0.300706 -0.392639 -0.836294 0.382683 -0.470894 -0.74201 0.477159 -0.348131 -0.741495 0.573576 -0.294715 -0.907039 0.300706 -0.172326 -0.907666 0.382683 -0.271569 -0.835805 0.477159 -0.152792 -0.804776 0.573576 -0.0598844 -0.951835 0.300706 0.0588155 -0.922005 0.382683 -0.0551814 -0.877083 0.477159 0.0521484 -0.81749 0.573576 0.178709 -0.936824 0.300706 0.286261 -0.878412 0.382683 0.164674 -0.863251 0.477159 0.253812 -0.778839 0.573576 0.406073 -0.862949 0.300706 0.49572 -0.779625 0.382683 0.374182 -0.795177 0.477159 0.439527 -0.69125 0.573576 0.607922 -0.734852 0.300706 0.674031 -0.631851 0.382683 0.560179 -0.67714 0.477159 0.597625 -0.560227 0.573576 0.771573 -0.560581 0.300706 0.80999 -0.444376 0.382683 0.710978 -0.516556 0.477159 0.718173 -0.394003 0.573576 0.886744 -0.351087 0.300706 0.895054 -0.228979 0.382683 0.817103 -0.323514 0.477159 0.793594 -0.203022 0.573576 0.946197 -0.119532 0.300706 0.923879 0.000806237 0.382683 0.871887 -0.110145 0.477159 0.819152 0.000714845 0.573576 0.946197 0.119532 0.300706 0.894653 0.23054 0.382683 0.871887 0.110145 0.477159 0.793239 0.204407 0.573576 0.886744 0.351087 0.300706 0.809213 0.445789 0.382683 0.817103 0.323514 0.477159 0.717484 0.395256 0.573576 0.771573 0.560581 0.300706 0.672927 0.633027 0.382683 0.710978 0.516556 0.477159 0.596647 0.561269 0.573576 0.607922 0.734852 0.300706 0.494358 0.780489 0.382683 0.560179 0.67714 0.477159 0.43832 0.692016 0.573576 0.406073 0.862949 0.300706 0.284728 0.87891 0.382683 0.374182 0.795177 0.477159 0.252452 0.77928 0.573576 0.178709 0.936824 0.300706 0.0572062 0.922107 0.382683 0.164674 0.863251 0.477159 0.0507215 0.81758 0.573576 -0.0598844 0.951835 0.300706 -0.17391 0.907364 0.382683 -0.0551814 0.877083 0.477159 -0.154196 0.804508 0.573576 -0.294715 0.907039 0.300706 -0.394098 0.835608 0.382683 -0.271569 0.835805 0.477159 -0.349425 0.740886 0.573576 -0.511027 0.80525 0.300706 -0.589524 0.711347 0.382683 -0.470894 0.74201 0.477159 -0.522698 0.630712 0.573576 -0.69523 0.652864 0.300706 -0.747908 0.54239 0.382683 -0.64063 0.601592 0.477159 -0.663128 0.480907 0.573576 -0.835749 0.459457 0.300706 -0.859298 0.339353 0.382683 -0.770113 0.423373 0.477159 -0.761891 0.300885 0.573576 -0.923754 0.23718 0.300706 -0.916695 0.114993 0.382683 -0.851207 0.218553 0.477159 -0.812782 0.101958 0.573576 
        </DataArray>
      </PointData>
      <CellData>
      </CellData>
      <Points>
        <DataArray type="Float64" NumberOfComponents="3" format="ascii">
0.0715288 0 -0.0225529 0.068737 0.00874445 -0.0287013 0.0659113 0 -0.0357869 0.0609452 0.00775321 -0.0430182 0.0692816 0.0177885 -0.0225529 0.0644028 0.0255639 -0.0287013 0.0638406 0.0163915 -0.0357869 0.0571024 0.0226661 -0.0430182 0.0626811 0.0344592 -0.0225529 0.056022 0.0407771 -0.0287013 0.0577585 0.031753 -0.0357869 0.0496716 0.0361548 -0.0430182 0.0521422 0.0489648 -0.0225529 0.0441211 0.0534281 -0.0287013 0.0480473 0.0451194 -0.0357869 0.0391197 0.0473717 -0.0430182 0.038327 0.0603937 -0.0225529 0.0294479 0.0627221 -0.0287013 0.035317 0.0556507 -0.0357869 0.0261098 0.0556121 -0.0430182 0.0221036 0.0680279 -0.0225529 0.0129244 0.0680749 -0.0287013 0.0203677 0.0626854 -0.0357869 0.0114594 0.0603582 -0.0430182 0.00449133 0.0713876 -0.0225529 -0.00441116 0.0691504 -0.0287013 0.0041386 0.0657812 -0.0357869 -0.00391113 0.0613118 -0.0430182 -0.0134032 0.0702618 -0.0225529 -0.0214696 0.0658809 -0.0287013 -0.0123505 0.0647438 -0.0357869 -0.0190359 0.0584129 -0.0430182 -0.0304555 0.0647212 -0.0225529 -0.037179 0.0584719 -0.0287013 -0.0280637 0.0596383 -0.0357869 -0.0329645 0.0518437 -0.0430182 -0.0455942 0.0551139 -0.0225529 -0.0505523 0.0473888 -0.0287013 -0.0420134 0.0507855 -0.0357869 -0.0448219 0.042017 -0.0430182 -0.057868 0.0420436 -0.0225529 -0.0607492 0.0333282 -0.0287013 -0.0533233 0.0387417 -0.0357869 -0.0538629 0.0295502 -0.0430182 -0.0665058 0.0263315 -0.0225529 -0.0671291 0.0171734 -0.0287013 -0.0612828 0.0242636 -0.0357869 -0.0595196 0.0152267 -0.0430182 -0.0709647 0.00896493 -0.0225529 -0.0692909 -6.04678e-05 -0.0287013 -0.0653916 0.00826087 -0.0357869 -0.0614364 -5.36134e-05 -0.0430182 -0.0709647 -0.00896493 -0.0225529 -0.067099 -0.0172905 -0.0287013 -0.0653916 -0.00826087 -0.0357869 -0.0594929 -0.0153305 -0.0430182 -0.0665058 -0.0263315 -0.0225529 -0.060691 -0.0334342 -0.0287013 -0.0612828 -0.0242636 -0.0357869 -0.0538113 -0.0296442 -0.0430182 -0.057868 -0.0420436 -0.0225529 -0.0504695 -0.047477 -0.0287013 -0.0533233 -0.0387417 -0.0357869 -0.0447485 -0.0420952 -0.0430182 -0.0455942 -0.0551139 -0.0225529 -0.0370769 -0.0585367 -0.0287013 -0.0420134 -0.0507855 -0.0357869 -0.032874 -0.0519012 -0.0430182 -0.0304555 -0.0647212 -0.0225529 -0.0213546 -0.0659183 -0.0287013 -0.0280637 -0.0596383 -0.0357869 -0.0189339 -0.058446 -0.0430182 -0.0134032 -0.0702618 -0.0225529 -0.00429047 -0.069158 -0.0287013 -0.0123505 -0.0647438 -0.0357869 -0.00380411 -0.0613185 -0.0430182 0.00449133 -0.0713876 -0.0225529 0.0130432 -0.0680523 -0.0287013 0.0041386 -0.0657812 -0.0357869 0.0115647 -0.0603381 -0.0430182 0.0221036 -0.0680279 -0.0225529 0.0295574 -0.0626706 -0.0287013 0.0203677 -0.0626854 -0.0357869 0.0262068 -0.0555665 -0.0430182 0.038327 -0.0603937 -0.0225529 0.0442143 -0.053351 -0.0287013 0.035317 -0.0556507 -0.0357869 0.0392023 -0.0473034 -0.0430182 0.0521422 -0.0489648 -0.0225529 0.0560931 -0.0406793 -0.0287013 0.0480473 -0.0451194 -0.0357869 0.0497346 -0.036068 -0.0430182 0.0626811 -0.0344592 -0.0225529 0.0644473 -0.0254515 -0.0287013 0.0577585 -0.031753 -0.0357869 0.0571418 -0.0225664 -0.0430182 0.0692816 -0.0177885 -0.0225529 0.0687521 -0.00862447 -0.0287013 0.0638406 -0.0163915 -0.0357869 0.0609587 -0.00764683 -0.0430182 
        </DataArray>
      </Points>
      <Cells>
        <DataArray type="Int64" Name="connectivity" format="ascii">
        </DataArray>
        <DataArray type="Int64" Name="offsets" format="ascii">
        </DataArray>
        <DataArray type="Int64" Name="types" format="ascii">
        </DataArray>
      </Cells>
    </Piece>
  </UnstructuredGrid>
</VTKFile>